<?xml version="1.0" encoding="UTF-8"?>

<!-- generated on 2025-09-05 19:03:45 by Eclipse SUMO sumo Version 1.20.0
<configuration xmlns:xsi="http://www.w3.org/2001/XMLSchema-instance" xsi:noNamespaceSchemaLocation="http://sumo.dlr.de/xsd/sumoConfiguration.xsd">

    <input>
        <net-file value="Sumo_env/Single intersection lhd/cross_2lanes.net.xml"/>
        <route-files value="Sumo_env/Single intersection lhd/uniform_episode_routes.rou.xml"/>
        <additional-files value="Sumo_env/Single intersection lhd/essential_detectors.xml,Sumo_env/Single intersection lhd/essential_traffic_lights.xml"/>
    </input>

    <time>
        <begin value="0"/>
        <end value="1500"/>
    </time>

    <processing>
        <lateral-resolution value="0.64"/>
    </processing>

    <report>
        <verbose value="true"/>
        <no-step-log value="true"/>
    </report>

    <traci_server>
        <remote-port value="51156"/>
    </traci_server>

</configuration>
-->

<detector xmlns:xsi="http://www.w3.org/2001/XMLSchema-instance" xsi:noNamespaceSchemaLocation="http://sumo.dlr.de/xsd/det_e1_file.xsd">
    <interval begin="0.00" end="6.00" id="flow_3i" nVehContrib="0" flow="0.00" occupancy="0.00" speed="-1.00" harmonicMeanSpeed="-1.00" length="-1.00" nVehEntered="0"/>
</detector>
