<?xml version="1.0" encoding="UTF-8"?>

<!-- generated on 2025-09-05 17:08:52 by Eclipse SUMO GUI Version 1.24.0
<sumoConfiguration xmlns:xsi="http://www.w3.org/2001/XMLSchema-instance" xsi:noNamespaceSchemaLocation="http://sumo.dlr.de/xsd/sumoConfiguration.xsd">

    <input>
        <net-file value="C:\Users\rajit\Documents\Traffic-simulation-rl\Sumo_env\Single intersection lhd\cross_2lanes.net.xml"/>
        <route-files value="C:\Users\rajit\Documents\Traffic-simulation-rl\Sumo_env\Single intersection lhd\congested_episode_routes.rou.xml"/>
        <additional-files value="C:\Users\rajit\Documents\Traffic-simulation-rl\Sumo_env\Single intersection lhd\essential_detectors.xml,C:\Users\rajit\Documents\Traffic-simulation-rl\Sumo_env\Single intersection lhd\essential_traffic_lights.xml"/>
    </input>

    <time>
        <begin value="0"/>
        <end value="1500"/>
    </time>

    <processing>
        <lateral-resolution value="0.64"/>
    </processing>

    <report>
        <verbose value="true"/>
        <no-step-log value="true"/>
    </report>

</sumoConfiguration>
-->

<detector xmlns:xsi="http://www.w3.org/2001/XMLSchema-instance" xsi:noNamespaceSchemaLocation="http://sumo.dlr.de/xsd/det_e2_file.xsd">
</detector>
